/*--------------------------------*- C++ -*----------------------------------*\
  =========                 |
  \\      /  F ield         | OpenFOAM: The Open Source CFD Toolbox
   \\    /   O peration     | Website:  https://openfoam.org
    \\  /    A nd           | Version:  10
     \\/     M anipulation  |
\*---------------------------------------------------------------------------*/
FoamFile
{
    format          ascii;
    class           volScalarField;
    location        "0";
    object          omega;
}
// * * * * * * * * * * * * * * * * * * * * * * * * * * * * * * * * * * * * * //

#include        "../setUp"

dimensions      [ 0 0 -1 0 0 0 0 ];

internalField   uniform $omega0;

boundaryField
{
    east
    {
        type            inletOutlet;
        inletValue      uniform $omega0;
        value           uniform $omega0;
    }
    north
    {
        type            slip;
    }
    south
    {
        type            slip;
    }
    west
    {
        type            fixedValue;
        value           uniform $omega0;
    }
    minZ
    {
        type            omegaWallFunction;
        Cmu             0.09;
        kappa           0.4;
        E               9.8;
        value           $internalField;
    }
    maxZ
    {
        type            slip;
    }
}


// ************************************************************************* //
